LAMMPS data file by Anton

1230 atoms
4 atom types
1910 bonds
5 bond types

0 20 xlo xhi
0 20 ylo yhi
-15.0 15.0 zlo zhi

Atoms

1 1 1 0 0 0 -1 0 0 0
2 1 1 0 0 0 1 0 0 0
3 1 1 0 0 2 -1 0 0 0
4 1 1 0 0 2 1 0 0 0
5 1 1 0 0 4 -1 0 0 0
6 1 1 0 0 4 1 0 0 0
7 1 1 -10 0 6 -1 0 0 0
8 1 1 0 0 6 1 0 0 0
9 1 1 0 0 8 -1 0 0 0
10 1 1 0 0 8 1 0 0 0
11 1 1 0 0 10 -1 0 0 0
12 1 1 0 0 10 1 0 0 0
13 1 1 0 0 12 -1 0 0 0
14 1 1 0 0 12 1 0 0 0
15 1 1 0 0 14 -1 0 0 0
16 1 1 0 0 14 1 0 0 0
17 1 1 0 0 16 -1 0 0 0
18 1 1 0 0 16 1 0 0 0
19 1 1 0 0 18 -1 0 0 0
20 1 1 0 0 18 1 0 0 0
21 1 1 0 2 0 -1 0 0 0
22 1 1 0 2 0 1 0 0 0
23 1 1 0 2 2 -1 0 0 0
24 1 1 0 2 2 1 0 0 0
25 1 1 0 2 4 -1 0 0 0
26 1 1 0 2 4 1 0 0 0
27 1 1 0 2 6 -1 0 0 0
28 1 1 0 2 6 1 0 0 0
29 1 1 0 2 8 -1 0 0 0
30 1 1 0 2 8 1 0 0 0
31 1 1 0 2 10 -1 0 0 0
32 1 1 0 2 10 1 0 0 0
33 1 1 0 2 12 -1 0 0 0
34 1 1 -10 2 12 1 0 0 0
35 1 1 0 2 14 -1 0 0 0
36 1 1 0 2 14 1 0 0 0
37 1 1 0 2 16 -1 0 0 0
38 1 1 0 2 16 1 0 0 0
39 1 1 0 2 18 -1 0 0 0
40 1 1 0 2 18 1 0 0 0
41 1 1 0 4 0 -1 0 0 0
42 1 1 0 4 0 1 0 0 0
43 1 1 0 4 2 -1 0 0 0
44 1 1 0 4 2 1 0 0 0
45 1 1 -10 4 4 -1 0 0 0
46 1 1 0 4 4 1 0 0 0
47 1 1 0 4 6 -1 0 0 0
48 1 1 0 4 6 1 0 0 0
49 1 1 0 4 8 -1 0 0 0
50 1 1 0 4 8 1 0 0 0
51 1 1 -10 4 10 -1 0 0 0
52 1 1 0 4 10 1 0 0 0
53 1 1 0 4 12 -1 0 0 0
54 1 1 0 4 12 1 0 0 0
55 1 1 0 4 14 -1 0 0 0
56 1 1 0 4 14 1 0 0 0
57 1 1 0 4 16 -1 0 0 0
58 1 1 0 4 16 1 0 0 0
59 1 1 0 4 18 -1 0 0 0
60 1 1 0 4 18 1 0 0 0
61 1 1 0 6 0 -1 0 0 0
62 1 1 -10 6 0 1 0 0 0
63 1 1 0 6 2 -1 0 0 0
64 1 1 0 6 2 1 0 0 0
65 1 1 0 6 4 -1 0 0 0
66 1 1 0 6 4 1 0 0 0
67 1 1 0 6 6 -1 0 0 0
68 1 1 0 6 6 1 0 0 0
69 1 1 0 6 8 -1 0 0 0
70 1 1 0 6 8 1 0 0 0
71 1 1 0 6 10 -1 0 0 0
72 1 1 0 6 10 1 0 0 0
73 1 1 0 6 12 -1 0 0 0
74 1 1 0 6 12 1 0 0 0
75 1 1 0 6 14 -1 0 0 0
76 1 1 0 6 14 1 0 0 0
77 1 1 0 6 16 -1 0 0 0
78 1 1 0 6 16 1 0 0 0
79 1 1 0 6 18 -1 0 0 0
80 1 1 0 6 18 1 0 0 0
81 1 1 0 8 0 -1 0 0 0
82 1 1 0 8 0 1 0 0 0
83 1 1 0 8 2 -1 0 0 0
84 1 1 0 8 2 1 0 0 0
85 1 1 0 8 4 -1 0 0 0
86 1 1 0 8 4 1 0 0 0
87 1 1 0 8 6 -1 0 0 0
88 1 1 0 8 6 1 0 0 0
89 1 1 0 8 8 -1 0 0 0
90 1 1 0 8 8 1 0 0 0
91 1 1 0 8 10 -1 0 0 0
92 1 1 -10 8 10 1 0 0 0
93 1 1 0 8 12 -1 0 0 0
94 1 1 0 8 12 1 0 0 0
95 1 1 0 8 14 -1 0 0 0
96 1 1 -10 8 14 1 0 0 0
97 1 1 0 8 16 -1 0 0 0
98 1 1 0 8 16 1 0 0 0
99 1 1 0 8 18 -1 0 0 0
100 1 1 0 8 18 1 0 0 0
101 1 1 -10 10 0 -1 0 0 0
102 1 1 0 10 0 1 0 0 0
103 1 1 0 10 2 -1 0 0 0
104 1 1 0 10 2 1 0 0 0
105 1 1 0 10 4 -1 0 0 0
106 1 1 0 10 4 1 0 0 0
107 1 1 0 10 6 -1 0 0 0
108 1 1 0 10 6 1 0 0 0
109 1 1 0 10 8 -1 0 0 0
110 1 1 0 10 8 1 0 0 0
111 1 1 0 10 10 -1 0 0 0
112 1 1 0 10 10 1 0 0 0
113 1 1 0 10 12 -1 0 0 0
114 1 1 0 10 12 1 0 0 0
115 1 1 0 10 14 -1 0 0 0
116 1 1 0 10 14 1 0 0 0
117 1 1 0 10 16 -1 0 0 0
118 1 1 0 10 16 1 0 0 0
119 1 1 0 10 18 -1 0 0 0
120 1 1 0 10 18 1 0 0 0
121 1 1 0 12 0 -1 0 0 0
122 1 1 0 12 0 1 0 0 0
123 1 1 0 12 2 -1 0 0 0
124 1 1 0 12 2 1 0 0 0
125 1 1 0 12 4 -1 0 0 0
126 1 1 0 12 4 1 0 0 0
127 1 1 0 12 6 -1 0 0 0
128 1 1 0 12 6 1 0 0 0
129 1 1 0 12 8 -1 0 0 0
130 1 1 0 12 8 1 0 0 0
131 1 1 0 12 10 -1 0 0 0
132 1 1 0 12 10 1 0 0 0
133 1 1 0 12 12 -1 0 0 0
134 1 1 0 12 12 1 0 0 0
135 1 1 0 12 14 -1 0 0 0
136 1 1 0 12 14 1 0 0 0
137 1 1 0 12 16 -1 0 0 0
138 1 1 0 12 16 1 0 0 0
139 1 1 0 12 18 -1 0 0 0
140 1 1 0 12 18 1 0 0 0
141 1 1 0 14 0 -1 0 0 0
142 1 1 0 14 0 1 0 0 0
143 1 1 0 14 2 -1 0 0 0
144 1 1 0 14 2 1 0 0 0
145 1 1 0 14 4 -1 0 0 0
146 1 1 0 14 4 1 0 0 0
147 1 1 0 14 6 -1 0 0 0
148 1 1 0 14 6 1 0 0 0
149 1 1 0 14 8 -1 0 0 0
150 1 1 0 14 8 1 0 0 0
151 1 1 0 14 10 -1 0 0 0
152 1 1 0 14 10 1 0 0 0
153 1 1 0 14 12 -1 0 0 0
154 1 1 0 14 12 1 0 0 0
155 1 1 0 14 14 -1 0 0 0
156 1 1 0 14 14 1 0 0 0
157 1 1 0 14 16 -1 0 0 0
158 1 1 0 14 16 1 0 0 0
159 1 1 -10 14 18 -1 0 0 0
160 1 1 0 14 18 1 0 0 0
161 1 1 0 16 0 -1 0 0 0
162 1 1 0 16 0 1 0 0 0
163 1 1 0 16 2 -1 0 0 0
164 1 1 0 16 2 1 0 0 0
165 1 1 0 16 4 -1 0 0 0
166 1 1 0 16 4 1 0 0 0
167 1 1 0 16 6 -1 0 0 0
168 1 1 0 16 6 1 0 0 0
169 1 1 0 16 8 -1 0 0 0
170 1 1 0 16 8 1 0 0 0
171 1 1 0 16 10 -1 0 0 0
172 1 1 0 16 10 1 0 0 0
173 1 1 -10 16 12 -1 0 0 0
174 1 1 0 16 12 1 0 0 0
175 1 1 0 16 14 -1 0 0 0
176 1 1 0 16 14 1 0 0 0
177 1 1 0 16 16 -1 0 0 0
178 1 1 0 16 16 1 0 0 0
179 1 1 0 16 18 -1 0 0 0
180 1 1 0 16 18 1 0 0 0
181 1 1 0 18 0 -1 0 0 0
182 1 1 0 18 0 1 0 0 0
183 1 1 0 18 2 -1 0 0 0
184 1 1 0 18 2 1 0 0 0
185 1 1 0 18 4 -1 0 0 0
186 1 1 0 18 4 1 0 0 0
187 1 1 0 18 6 -1 0 0 0
188 1 1 0 18 6 1 0 0 0
189 1 1 0 18 8 -1 0 0 0
190 1 1 0 18 8 1 0 0 0
191 1 1 0 18 10 -1 0 0 0
192 1 1 0 18 10 1 0 0 0
193 1 1 0 18 12 -1 0 0 0
194 1 1 0 18 12 1 0 0 0
195 1 1 0 18 14 -1 0 0 0
196 1 1 0 18 14 1 0 0 0
197 1 1 0 18 16 -1 0 0 0
198 1 1 0 18 16 1 0 0 0
199 1 1 0 18 18 -1 0 0 0
200 1 1 0 18 18 1 0 0 0
201 1 2 10 9.696442118771282 14.568613837757997 -12.569418183478103 0 0 0
202 1 3 0 10.107593972936005 13.472784006844249 -14.191179921371946 0 0 0
203 1 3 0 9.22325666939061 11.879575865541193 -13.366779926197442 0 0 0
204 1 2 10 4.209228208952311 3.83886500564083 4.388732854742539 0 0 0
205 1 3 0 4.339622937397544 4.035576722536537 6.374759469677404 0 0 0
206 1 3 0 2.7203184611144833 2.904130848463558 6.0622162772497425 0 0 0
207 1 2 10 19.445651218496593 3.0564119346704333 7.228218562607562 0 0 0
208 1 3 0 18.733319829929787 2.0502095933898166 5.653372271294061 0 0 0
209 1 3 0 18.896560035932573 2.177016178691611 3.6640827687157493 0 0 0
210 1 2 10 3.8270018202538614 1.0798769776964168 -9.0392744929399 0 0 0
211 1 3 0 2.48933616218842 0.07877395907933016 -7.939982296411558 0 0 0
212 1 3 0 3.0988915877748107 1.4189317306058689 -6.5863134556106715 0 0 0
213 1 2 10 17.298565610822475 17.955963263663097 8.893932082101362 0 0 0
214 1 3 0 17.61370952377083 17.77086178916124 10.860253967823239 0 0 0
215 1 3 0 16.8924880247981 19.56985452677445 10.366832566347318 0 0 0
216 1 2 10 7.497717212359076 13.491060246525333 3.4343805956979097 0 0 0
217 1 3 0 6.647066400379756 12.40566424466059 4.882934604085224 0 0 0
218 1 3 0 5.9823741367245375 11.947908403804853 6.712864598593036 0 0 0
219 1 2 10 11.527796389538882 6.9804959674841704 14.017638508693153 0 0 0
220 1 3 0 11.954631767389515 6.949059489892068 12.063969317634516 0 0 0
221 1 3 0 11.119812718015886 5.188563981660173 11.612601706591995 0 0 0
222 1 2 10 6.102426155162918 11.592853726731736 -7.7148131336270245 0 0 0
223 1 3 0 5.585019588522208 10.317711345455573 -6.263502569939697 0 0 0
224 1 3 0 6.624738592023728 8.874887324572484 -7.178512536290098 0 0 0
225 1 2 10 7.869911760914226 0.28026308217779405 8.031079841125507 0 0 0
226 1 3 0 6.771391084579953 19.3495117907155 9.419227656420174 0 0 0
227 1 3 0 8.18562656000152 0.2287924430578201 10.526839300669005 0 0 0
228 1 2 10 8.786113871185595 15.76941517821825 -7.188216796202061 0 0 0
229 1 3 0 10.151534700347202 16.902431769911615 -8.111200740937385 0 0 0
230 1 3 0 10.235736928982918 15.563594984466013 -9.594584051693733 0 0 0
231 1 4 0 12.70439294393605 16.400253617271307 4.40840917355235 0 0 0
232 1 4 0 11.459430069768853 15.57482755089423 5.738348740183338 0 0 0
233 1 4 0 11.426651837305437 15.540329664872875 7.737782530869249 0 0 0
234 1 4 0 10.992122331012057 15.219511312376639 5.812098316658094 0 0 0
235 1 4 0 11.953084181664776 16.973509426639577 5.81865093080546 0 0 0
236 1 4 0 11.17298245499345 18.486799676696734 6.8681240915515405 0 0 0
237 1 4 0 12.520642635742906 17.173322683886568 6.190931189506115 0 0 0
238 1 4 0 11.897133018460693 16.241216881745352 7.846954900318031 0 0 0
239 1 4 0 13.326546222886066 16.672057893740767 9.177801966436881 0 0 0
240 1 4 0 13.959383848237374 18.30924662727587 8.219089501343491 0 0 0
241 1 4 0 14.661544605039234 17.721952669311847 9.99730660803952 0 0 0
242 1 4 0 14.565677200335573 17.226580903568667 8.061998814839722 0 0 0
243 1 4 0 14.6658770701593 17.25656229892892 10.05926221810419 0 0 0
244 1 4 0 15.394103557945902 16.732405326068005 11.8467033081229 0 0 0
245 1 4 0 16.04377785257422 16.4412485776051 9.977705967642258 0 0 0
246 1 4 0 15.221382821368826 17.482190131186094 8.481007235539813 0 0 0
247 1 4 0 14.941978681061693 17.19804136684233 6.521111114287173 0 0 0
248 1 4 0 14.38325982530472 16.84479339661 4.633507047818689 0 0 0
249 1 4 0 13.418164889281824 16.563816006962035 6.362565598293363 0 0 0
250 1 4 0 12.289997249378747 15.186476244416513 7.273703872534195 0 0 0
251 1 4 0 11.093741988879298 13.592290240175952 7.439668735113332 0 0 0
252 1 4 0 9.217609538779069 14.106545595857522 6.975267552046648 0 0 0
253 1 4 0 8.998052608867845 13.405165374520413 8.835337588267077 0 0 0
254 1 4 0 9.472594186041686 14.871319600369876 10.110171725540287 0 0 0
255 1 4 0 11.335984751922162 15.160787901294995 9.44385070550027 0 0 0
256 1 4 0 11.33487221281951 15.172342257095961 7.443884391004255 0 0 0
257 1 4 0 9.670679399294343 15.975846383992534 6.67913384509313 0 0 0
258 1 4 0 10.917884824367952 17.46146676226449 6.191885736497466 0 0 0
259 1 4 0 11.346454744552709 16.886031555420224 8.058755347969282 0 0 0
260 1 4 0 10.245786656651076 17.334881625066647 9.667190418232725 0 0 0
261 1 4 0 11.552451439619341 18.829479340821056 9.424693381112277 0 0 0
262 1 4 0 10.554516518831305 19.78889501234747 10.868177867728358 0 0 0
263 1 4 0 10.787386562379474 19.31395962780078 8.939393814672298 0 0 0
264 1 4 0 10.429157285223125 19.72780345798335 7.015750118659998 0 0 0
265 1 4 0 9.604809173906835 19.76528086040396 8.83757492793148 0 0 0
266 1 4 0 9.615597777270672 19.85207125559957 6.839488084638814 0 0 0
267 1 4 0 7.686469884432274 19.942556045621608 7.359370836658487 0 0 0
268 1 4 0 8.307237522644275 19.30354460988742 5.568753087291071 0 0 0
269 1 4 0 9.075827919663553 19.970137909103507 7.290648024576724 0 0 0
270 1 4 0 8.582928207465269 18.683558478129395 8.740393947664346 0 0 0
271 1 4 0 10.07844026286134 17.429364858995942 8.303997272734359 0 0 0
272 1 4 0 10.607570365694334 15.647071967686582 9.04119018090973 0 0 0
273 1 4 0 9.085680734280993 16.907600574823768 8.733099966223588 0 0 0
274 1 4 0 10.705851385522902 17.3757103964657 9.808237285702699 0 0 0
275 1 4 0 12.040263415825642 18.44906989134989 10.841312272393052 0 0 0
276 1 4 0 10.692194428565827 19.9264562697596 10.847596735595063 0 0 0
277 1 4 0 10.00353118397508 18.852752260410025 9.307173859935139 0 0 0
278 1 4 0 10.18490838892113 18.252386096234236 11.206295440676827 0 0 0
279 1 4 0 11.53504816995823 18.42584589435341 12.671571616043623 0 0 0
280 1 4 0 11.204212472275218 19.206929405921258 14.4827746110432 0 0 0
281 1 4 0 11.015649242432712 0.8420195050082029 -14.381036902736666 0 0 0
282 1 4 0 10.136695668802775 0.7662433346596436 -12.586127827766441 0 0 0
283 1 4 0 11.739207255084786 19.86900705537428 -13.377912946953504 0 0 0
284 1 4 0 12.051362590667859 1.8444929133335144 -13.374082611448406 0 0 0
285 1 4 0 11.00807133743605 0.8609465490168803 -11.979744090798011 0 0 0
286 1 4 0 11.042007896777559 2.0477497523289427 -13.58919942306054 0 0 0
287 1 4 0 10.61764695190253 0.6963145083650955 14.99887261495374 0 0 0
288 1 4 0 12.529343537928385 0.8265706573230033 -14.42802224754028 0 0 0
289 1 4 0 12.337401372441127 1.0747305169050676 -12.452781783900404 0 0 0
290 1 4 0 11.689326080279006 0.2665872301236749 -14.163601132551555 0 0 0
291 1 4 0 12.40521698160161 1.5790475286446986 -12.835087609018725 0 0 0
292 1 4 0 11.192040659255573 0.34307102507595366 -13.835370215847878 0 0 0
293 1 4 0 10.49156587112727 0.8447156266376301 14.359723203489114 0 0 0
294 1 4 0 12.020831351200851 19.74292366246522 -14.971395970697785 0 0 0
295 1 4 0 10.984239179908345 1.3673220528530514 14.49306081001874 0 0 0
296 1 4 0 10.508380765870884 0.44455758186957095 12.783656088813043 0 0 0
297 1 4 0 9.561721477559795 1.960771059816548 11.886475571221252 0 0 0
298 1 4 0 9.533741106833242 1.9928486172260043 9.886928590236648 0 0 0
299 1 4 0 11.494646825246926 2.308120165102942 9.651444801852412 0 0 0
300 1 4 0 13.226932925860028 2.676305315921037 8.72213077508874 0 0 0
301 1 4 0 13.315563233775704 2.468083639577557 10.709286632594507 0 0 0
302 1 4 0 15.230545763308315 1.9457565184860064 10.954268856760045 0 0 0
303 1 4 0 14.115891459278224 3.509392251591926 11.51336551804636 0 0 0
304 1 4 0 14.467618942420389 2.460266892153059 13.179385853391864 0 0 0
305 1 4 0 14.321585895963604 2.243414685783316 11.196547113116921 0 0 0
306 1 4 0 13.622137729870975 1.1605973311000781 12.725690284748163 0 0 0
307 1 4 0 14.521523816351365 2.038191907384973 14.28162486792344 0 0 0
308 1 4 0 15.034705257745353 1.7890794610082228 12.364703430495975 0 0 0
309 1 4 0 13.22880797249514 2.5072553664846993 12.836888101910617 0 0 0
310 1 4 0 13.51861128904646 4.078812305908562 14.039478150041965 0 0 0
311 1 4 0 11.94014857311811 4.03651947317147 -14.733058298269768 0 0 0
312 1 4 0 12.422942743661876 3.310705640757266 -12.933029390289354 0 0 0
313 1 4 0 10.748733487978395 4.3138767970772705 -13.36968829528426 0 0 0
314 1 4 0 10.759971932103396 4.34295628708471 -11.369931289887214 0 0 0
315 1 4 0 9.140669442641101 5.170421531312061 -12.202494030596275 0 0 0
316 1 4 0 9.14826345849875 5.169117420433481 -10.202508873096857 0 0 0
317 1 4 0 9.93293978896699 6.6447296260890445 -11.301076884156354 0 0 0
318 1 4 0 8.192984311002647 7.437399580780331 -10.71436632721061 0 0 0
319 1 4 0 6.962753519206492 8.788277584077031 -11.527791688952995 0 0 0
320 1 4 0 5.382036326729282 9.720004522681137 -10.73204168468885 0 0 0
321 1 4 0 5.254556147133044 9.774102963090767 -8.736841904577757 0 0 0
322 1 4 0 4.185809011664651 11.4546402041615 -8.920074384783847 0 0 0
323 1 4 0 3.0000367869300706 13.01546676097741 -8.52287834932253 0 0 0
324 1 4 0 1.2624973013358192 12.026791364384813 -8.463908050244667 0 0 0
325 1 4 0 19.656226155519825 11.399344235034391 -7.450891216234055 0 0 0
326 1 4 0 18.391649125447973 11.834904470742465 -8.937878847683821 0 0 0
327 1 4 0 17.903967219057915 13.088300682808152 -10.418137032514815 0 0 0
328 1 4 0 17.919298503384486 11.62623302119724 -11.78273334813072 0 0 0
329 1 4 0 18.124774373845298 13.568975902818122 -11.354329610320509 0 0 0
330 1 4 0 16.60092823161999 14.649492371829151 -10.639922796928463 0 0 0
331 1 4 0 19.18839153494052 4.9258439008977595 4.640843868828902 0 0 0
332 1 4 0 18.370322396866648 5.28390022304357 6.430413245942425 0 0 0
333 1 4 0 18.857566224334686 5.955377241784049 4.610602248641416 0 0 0
334 1 4 0 0.29932431156714046 6.57381244838537 3.3700896476833293 0 0 0
335 1 4 0 1.2756917114337123 6.359559152072201 5.102372022325735 0 0 0
336 1 4 0 0.3094910364925956 6.462874011270245 6.850451624521304 0 0 0
337 1 4 0 0.4835577567020768 8.091651701387967 7.997963721664638 0 0 0
338 1 4 0 0.6376226007249608 7.66770719318793 6.049493789178321 0 0 0
339 1 4 0 2.173132477155103 6.50106322287859 5.519256798836881 0 0 0
340 1 4 0 1.7348430551329157 5.997339581639276 7.404506086278747 0 0 0
341 1 4 0 0.8660224283898217 6.040597772811556 9.205416813506012 0 0 0
342 1 4 0 0.997378020177234 6.088005265432259 11.20053541603309 0 0 0
343 1 4 0 19.21234231431797 6.687297821611246 10.526372260027088 0 0 0
344 1 4 0 19.70661597683349 6.052111913595228 12.357282527845083 0 0 0
345 1 4 0 19.502467798766883 6.06644002981678 14.34678453248786 0 0 0
346 1 4 0 18.11252026219111 7.266570322435894 -14.860919357269948 0 0 0
347 1 4 0 18.550164052058822 6.975700421492558 -12.931188128856146 0 0 0
348 1 4 0 16.64560701783043 7.44985658643935 -12.54669048957327 0 0 0
349 1 4 0 16.36235514800441 7.131453592053876 -14.50076006648358 0 0 0
350 1 4 0 16.0176828497455 8.597714276410931 -13.184978696984185 0 0 0
351 1 4 0 14.517072297145752 8.09281703443505 -14.406963453219477 0 0 0
352 1 4 0 16.222735370954716 9.131053945701938 -14.29392542984878 0 0 0
353 1 4 0 15.594931075830626 10.77645886778052 14.758179845288105 0 0 0
354 1 4 0 14.054308060665624 11.89134671579104 14.13890138489862 0 0 0
355 1 4 0 13.216530592648114 11.855280063969932 -14.045381646323321 0 0 0
356 1 4 0 13.4388675340708 9.87276144387103 -14.187459812977968 0 0 0
357 1 4 0 12.811593762353356 9.858120263545668 -12.288430257875138 0 0 0
358 1 4 0 11.196157280704064 9.112763656428678 -11.374751702811267 0 0 0
359 1 4 0 10.998834940207303 7.954958009995427 -12.993562988609634 0 0 0
360 1 4 0 12.220434535346334 6.3718329244179985 -13.031104866181416 0 0 0
361 1 4 0 14.13187673394837 5.978180982352957 -12.593581301202528 0 0 0
362 1 4 0 13.905236094211258 5.753337058461523 -14.567936697353042 0 0 0
363 1 4 0 15.144970158036053 7.322635673416543 -14.586944803326917 0 0 0
364 1 4 0 15.6080839260524 7.7127657447179345 -12.680816747466013 0 0 0
365 1 4 0 15.745010250209972 7.615587649106462 -14.673756184449992 0 0 0
366 1 4 0 16.39200518110347 8.679003289811938 -13.10833460081794 0 0 0
367 1 4 0 14.69956372638004 7.971822212365888 -12.311128952295627 0 0 0
368 1 4 0 12.705113164090596 7.998986355721044 -12.164742259255918 0 0 0
369 1 4 0 11.788561656344124 8.885633650913151 -13.705453104150633 0 0 0
370 1 4 0 12.320088540347893 10.304603476778638 14.989171928698353 0 0 0
371 1 4 0 10.87648637319832 9.368545490919109 13.969462053238837 0 0 0
372 1 4 0 12.586028979348828 9.695176186574145 12.984182160816365 0 0 0
373 1 4 0 10.91396854617865 9.652763246951496 11.887635285220378 0 0 0
374 1 4 0 10.628832178957651 10.093915418393802 9.957847210399791 0 0 0
375 1 4 0 8.791934368058627 9.53546362459474 10.518148938325897 0 0 0
376 1 4 0 7.517562208333561 10.961889957852923 11.102343695496216 0 0 0
377 1 4 0 7.764287103749314 12.24462376460967 12.616847180796078 0 0 0
378 1 4 0 7.42433454349135 11.930398900836927 10.671160928657503 0 0 0
379 1 4 0 7.32104593683871 12.312271888003707 8.710675150742224 0 0 0
380 1 4 0 6.7337068802493745 13.293649697713551 10.351385493006774 0 0 0
381 1 4 0 7.308742757492093 14.146814123881482 12.066449399047958 0 0 0
382 1 4 0 7.463118197713495 14.1257168211561 14.060370943962441 0 0 0
383 1 4 0 7.034177187198487 13.385894724229816 12.252423800266598 0 0 0
384 1 4 0 6.052645531407905 11.755111639128977 11.638304806886659 0 0 0
385 1 4 0 6.684827163129867 11.447103814155303 13.510596868576913 0 0 0
386 1 4 0 7.0085054913812215 12.099146622236946 -14.626590066123883 0 0 0
387 1 4 0 7.862203709811264 13.040662356432382 13.829147173167367 0 0 0
388 1 4 0 8.801796875920644 11.874089774428343 12.503902632293125 0 0 0
389 1 4 0 9.874243623394428 13.211010580921215 13.53467939328425 0 0 0
390 1 4 0 11.293733160821615 11.85511343093482 13.151805560548816 0 0 0
391 1 4 0 11.023321067374912 12.881774492728521 14.846752274730239 0 0 0
392 1 4 0 9.716474442115842 13.96868396304429 13.792816934499694 0 0 0
393 1 4 0 10.62399522625306 15.434638524279974 12.77921777765747 0 0 0
394 1 4 0 9.222218762093116 15.307712268199339 14.200102174800529 0 0 0
395 1 4 0 9.330087156363463 15.323965968400953 12.203079333982906 0 0 0
396 1 4 0 9.362578740817026 13.380360868510127 11.732607748636807 0 0 0
397 1 4 0 10.525572238566635 12.584810329957648 13.151954593069483 0 0 0
398 1 4 0 9.84328873557468 11.295851602850053 14.520557757379063 0 0 0
399 1 4 0 10.42448090084367 12.589878532925928 -14.069580557465848 0 0 0
400 1 4 0 11.433795881784125 10.978170359014888 -13.45016144943195 0 0 0
401 1 4 0 11.841150862759044 12.05371084593095 -11.813923514265039 0 0 0
402 1 4 0 10.632379242857212 10.612136714237353 -11.135148740314392 0 0 0
403 1 4 0 12.513033063120771 9.942408452829541 -11.014296499128092 0 0 0
404 1 4 0 10.831319430674135 8.867631621383408 -11.143501843559934 0 0 0
405 1 4 0 12.394004265860838 8.1985777090377 -10.089754735259081 0 0 0
406 1 4 0 14.003542896474473 9.044531549298595 -9.256839675537966 0 0 0
407 1 4 0 13.50081404488377 8.848457273630975 -7.331010352830549 0 0 0
408 1 4 0 13.137104292145855 10.253261645504974 -5.954696474194202 0 0 0
409 1 4 0 14.34527385651428 11.751554883138567 -5.4111491645741 0 0 0
410 1 4 0 14.422507877578749 11.754076472741772 -7.409655743891788 0 0 0
411 1 4 0 13.533999549355736 9.969417265905854 -7.56948210634222 0 0 0
412 1 4 0 13.506240557568773 8.897995290855476 -9.258056768521575 0 0 0
413 1 4 0 13.983221472485047 9.941841525796644 -10.896004949815717 0 0 0
414 1 4 0 13.218655568062228 9.424270135941661 -9.12186886873352 0 0 0
415 1 4 0 13.235433730029614 8.955341688580562 -7.177691766580399 0 0 0
416 1 4 0 12.480777035088025 8.612539330341175 -5.357532483450115 0 0 0
417 1 4 0 12.003047646057944 6.742056380879857 -5.880091730456073 0 0 0
418 1 4 0 10.147083820296396 6.9396267404582 -5.161506849957849 0 0 0
419 1 4 0 9.194633943472777 5.5256417899870485 -6.207205559902432 0 0 0
420 1 4 0 10.286320349957393 5.556057192017004 -7.882704200073787 0 0 0
421 1 4 0 10.860837863172298 6.00749161236308 -6.020947881127572 0 0 0
422 1 4 0 8.935346667049512 5.8923170973849555 -5.492536597416486 0 0 0
423 1 4 0 8.906850152258352 5.957522563783406 -7.4912702454537925 0 0 0
424 1 4 0 10.61245381445987 6.997783008339805 -7.584941772483566 0 0 0
425 1 4 0 9.257193543238294 7.038194480302085 -9.055192264808685 0 0 0
426 1 4 0 9.085577964637682 6.812140951738444 -7.075432709861291 0 0 0
427 1 4 0 10.283316911903995 6.3273781555790976 -5.548859277084093 0 0 0
428 1 4 0 11.5958363138939 6.130208978438866 -4.052725213911308 0 0 0
429 1 4 0 10.039635651504975 5.441500319701614 -5.103401130529086 0 0 0
430 1 4 0 11.872010055070312 5.080346548237617 -4.3878789446285325 0 0 0
431 1 4 0 2.208950731965851 7.5407931590447586 -6.031147900756064 0 0 0
432 1 4 0 3.7865762578994726 6.608797387175619 -6.832697388399034 0 0 0
433 1 4 0 5.317950210570675 6.990970567573604 -8.061044846272686 0 0 0
434 1 4 0 3.6998701526777915 5.942635383203428 -7.529245760657724 0 0 0
435 1 4 0 4.496694825049613 4.689885093473309 -8.86927828006934 0 0 0
436 1 4 0 3.5147990531509175 6.31494539657541 -9.497816031051073 0 0 0
437 1 4 0 3.2264251481662374 5.832400222867044 -7.578443569475507 0 0 0
438 1 4 0 4.670265804368601 6.547451857819615 -6.393527826121245 0 0 0
439 1 4 0 3.169704452122854 6.204177712260215 -5.116625915582742 0 0 0
440 1 4 0 2.0606719490422156 4.592803756067827 -5.533184291342475 0 0 0
441 1 4 0 3.275796677253802 4.29425566307453 -7.09342175117312 0 0 0
442 1 4 0 2.1313758811156314 5.915547916672754 -6.845001804733892 0 0 0
443 1 4 0 1.9130001969412098 5.685871376021126 -4.870271254193982 0 0 0
444 1 4 0 2.885927226557082 3.9399875631224837 -4.797451566599665 0 0 0
445 1 4 0 2.552089121013516 3.921001258888721 -6.769301368064935 0 0 0
446 1 4 0 2.3435011264715926 3.645256237739423 -8.73918860642259 0 0 0
447 1 4 0 1.235636014189023 4.454065480534272 -10.194682509452333 0 0 0
448 1 4 0 1.08984414928963 4.809736233421723 -8.231969324172928 0 0 0
449 1 4 0 1.4991623176993207 4.058637954527557 -6.424122535185554 0 0 0
450 1 4 0 2.7472562684258865 4.795442061255351 -5.045942141162765 0 0 0
451 1 4 0 1.3021941039080587 5.510206126886437 -6.229541596705717 0 0 0
452 1 4 0 0.7815971684255804 5.6164234405850655 -4.301408636291187 0 0 0
453 1 4 0 19.838211335157915 7.378159736752842 -4.221983247687082 0 0 0
454 1 4 0 0.9562923491001243 5.833280016331221 -3.6192880546649597 0 0 0
455 1 4 0 2.8864013132448516 5.779684409810468 -4.140639085631468 0 0 0
456 1 4 0 2.654244460540394 6.827463501468865 -5.828318608178881 0 0 0
457 1 4 0 2.7534253201492147 6.731272208035577 -7.823540498634899 0 0 0
458 1 4 0 1.1551119218921364 6.7010521870726505 -9.025406144738868 0 0 0
459 1 4 0 1.2437152367207187 6.692554958585607 -7.027387814064841 0 0 0
460 1 4 0 1.7175798976059322 6.997606800236261 -5.108430895040945 0 0 0
461 1 4 0 0.8693951217341651 8.442493340223367 -4.016237930156327 0 0 0
462 1 4 0 2.577916176128059 9.327230258299837 -4.562311544685841 0 0 0
463 1 4 0 3.0010706066702526 9.123819462424702 -6.506421720584819 0 0 0
464 1 4 0 3.0486387670624375 8.963761796267892 -8.499439235214668 0 0 0
465 1 4 0 3.87391142984492 8.692945922712818 -6.697888848826734 0 0 0
466 1 4 0 2.765186726414508 8.081382061119966 -5.14975475411892 0 0 0
467 1 4 0 3.417393096023692 9.909260515640227 -5.632959893725102 0 0 0
468 1 4 0 2.8114277704587685 8.792073180996692 -7.177206792224519 0 0 0
469 1 4 0 2.7769375768154547 7.497910029193003 -8.701658222430149 0 0 0
470 1 4 0 1.3979518167713243 7.260127537233437 -10.130594106265743 0 0 0
471 1 4 0 0.14817966170635022 8.238414793696437 -11.347567238371111 0 0 0
472 1 4 0 0.18725047993327976 6.873156655616789 -12.80857500274828 0 0 0
473 1 4 0 0.8815576842525525 6.201850738203172 -14.55994186074115 0 0 0
474 1 4 0 19.12560411074769 5.244446003813619 -14.5617369273081 0 0 0
475 1 4 0 17.355195370265164 5.462414956538089 -13.657224667981968 0 0 0
476 1 4 0 17.83770443540684 3.73679010670038 -14.545708702547975 0 0 0
477 1 4 0 18.628975741744828 4.944184711271983 14.070062996694682 0 0 0
478 1 4 0 17.58133464077473 5.381387714448817 -14.283333937119869 0 0 0
479 1 4 0 16.38680187445292 4.3027092204108035 -13.096091680171671 0 0 0
480 1 4 0 16.389993376334644 4.158723733562282 -11.101283921541098 0 0 0
481 1 4 0 15.3301952188676 3.6013087056361948 -9.499373701812285 0 0 0
482 1 4 0 14.958250671542157 4.335248124472939 -11.322280771081713 0 0 0
483 1 4 0 15.163857903609927 4.1819184747083105 -9.338795030113433 0 0 0
484 1 4 0 14.423662284828286 4.595913586427873 -11.150070407688244 0 0 0
485 1 4 0 13.965362738420966 4.018858370912017 -9.29077785297589 0 0 0
486 1 4 0 13.721505196815079 4.159759785590304 -7.310707073750159 0 0 0
487 1 4 0 13.71913170588772 4.180278226710675 -5.310813736565696 0 0 0
488 1 4 0 14.043491852344943 5.405783744591744 -6.85772249956153 0 0 0
489 1 4 0 15.939563826915743 4.881998563190474 -6.496391417323054 0 0 0
490 1 4 0 15.080158282716011 5.6804968489725844 -8.116213197088284 0 0 0
491 1 4 0 14.330713155328125 5.329504058948895 -6.295461686753625 0 0 0
492 1 4 0 16.309051147597156 5.247419187722732 -6.013609132639388 0 0 0
493 1 4 0 16.65377500052851 5.62636310392232 -7.946887946881008 0 0 0
494 1 4 0 16.613653647837825 5.642029045970081 -5.947351786838378 0 0 0
495 1 4 0 16.178543932935543 5.870554703616604 -7.886025446791202 0 0 0
496 1 4 0 15.882415408212127 4.334610936971471 -6.6397571600450895 0 0 0
497 1 4 0 17.193916940823904 3.989062463887432 -5.169872816735641 0 0 0
498 1 4 0 18.197208251030744 3.9000181149502984 -6.897726297441051 0 0 0
499 1 4 0 16.4667474259021 3.7459139011788776 -5.906889669134962 0 0 0
500 1 4 0 14.67469724486486 3.208263295205676 -5.20014503736119 0 0 0
501 1 4 0 15.790548904901518 1.762924957441069 -4.384135134123935 0 0 0
502 1 4 0 15.875626183631846 1.7884862925157603 -6.382161278795981 0 0 0
503 1 4 0 13.988975737080967 1.1310020186477572 -6.291251861541024 0 0 0
504 1 4 0 14.885303166716847 1.0633749649694648 -4.504628308440616 0 0 0
505 1 4 0 15.208301915623267 0.23344592770764927 -6.295407357155047 0 0 0
506 1 4 0 16.213466049254254 18.98200754903117 -5.1022824480036855 0 0 0
507 1 4 0 15.086892792514165 18.433976185500168 -6.661286720539325 0 0 0
508 1 4 0 15.986796667552419 17.951152535544594 -4.9416779456330335 0 0 0
509 1 4 0 15.262392369252844 19.114263790921676 -6.398527498682436 0 0 0
510 1 4 0 15.609794496816685 19.86543691692852 -4.577799430977315 0 0 0
511 1 4 0 17.582015347826022 19.895424620609322 -4.246973717841284 0 0 0
512 1 4 0 17.157556956666756 1.8217080730022275 -4.577529515267002 0 0 0
513 1 4 0 16.07643065497964 1.066487417994999 -6.081127760161824 0 0 0
514 1 4 0 15.76556976781949 1.4898135093782403 -4.151319342419743 0 0 0
515 1 4 0 14.455128621621371 2.0760803443216482 -5.543811784265083 0 0 0
516 1 4 0 13.039354424091583 2.8348252759610717 -4.352220600041077 0 0 0
517 1 4 0 13.635188101736702 3.9743346437875062 -5.884049777599623 0 0 0
518 1 4 0 14.224611069731152 3.1132210091588233 -7.590233786743183 0 0 0
519 1 4 0 15.599374283139982 2.327328289783622 -6.368596057835435 0 0 0
520 1 4 0 15.475864966514925 1.8427148630355092 -8.305060690954837 0 0 0
521 1 4 0 16.408710930863354 3.512676978789131 -8.88903409681039 0 0 0
522 1 4 0 17.787943363093984 2.0849831925169333 -9.132772379652748 0 0 0
523 1 4 0 18.16609162425044 0.557363122690232 -10.367025520157974 0 0 0
524 1 4 0 17.289268413935172 0.4746332120067857 -8.571381674700103 0 0 0
525 1 4 0 17.525354679996124 0.1594491150837774 -10.532229006856337 0 0 0
526 1 4 0 19.39253663708189 0.857515541277486 -10.694509023354103 0 0 0
527 1 4 0 0.5454707711206233 0.8847917740698094 -9.060495899265739 0 0 0
528 1 4 0 1.309028033656008 0.7598393526222788 -10.904775487398695 0 0 0
529 1 4 0 1.5426300834462465 1.9079623077795822 -12.525652954135357 0 0 0
530 1 4 0 1.3697330203443727 1.6130665346185653 -14.496222183709012 0 0 0
531 1 4 0 18.057031154798764 15.872106901598915 13.156972282091093 0 0 0
532 1 4 0 18.2808650813024 15.257291165781757 11.267025197028241 0 0 0
533 1 4 0 18.160956194617793 15.26991466332963 13.263387515397259 0 0 0
534 1 4 0 18.613935728836267 17.213587131976258 13.133207347152124 0 0 0
535 1 4 0 0.0463951685084929 16.757283575042422 14.4522399538846 0 0 0
536 1 4 0 0.10876095962796462 17.220890192433654 12.507714455875098 0 0 0
537 1 4 0 19.080487632755144 18.401292252894645 13.75242524192194 0 0 0
538 1 4 0 19.902602309379365 0.092908474697591 14.432544361350427 0 0 0
539 1 4 0 0.4622724892114647 18.611668936912395 13.210783860471224 0 0 0
540 1 4 0 19.843797103584045 19.1353108704774 11.382318021910022 0 0 0
541 1 4 0 19.940870640311893 18.747274547395968 13.341910974652144 0 0 0
542 1 4 0 0.32985914718472387 17.348113330467843 11.966761589834244 0 0 0
543 1 4 0 19.036427642770033 18.095350836616852 13.296675516670021 0 0 0
544 1 4 0 19.129434664696475 19.957582180007257 12.573181136894519 0 0 0
545 1 4 0 18.81447922939649 19.336132221302282 14.447908589779493 0 0 0
546 1 4 0 0.6598962905362704 18.702484485181557 14.887142487564375 0 0 0
547 1 4 0 0.266780221799347 18.423382701988885 12.946121634734737 0 0 0
548 1 4 0 18.402717998781434 18.72909046681182 12.288995473906784 0 0 0
549 1 4 0 0.34289809825876816 19.21456418834072 12.284939947185002 0 0 0
550 1 4 0 0.8153904261935738 19.1881798375146 14.22814731287561 0 0 0
551 1 4 0 1.0069420416004664 0.38731600592756266 -14.182708128489498 0 0 0