LAMMPS data file by Anton

8399 atoms
4 atom types
9612 bonds
5 bond types

-20.056367258423137 20.056367258423137 xlo xhi
-20.056367258423137 20.056367258423137 ylo yhi
-20.056367258423137 20.056367258423137 zlo zhi

Atoms

1 1 1 0 -10 -6 4.014091814605784 0 0 0
2 1 1 0 -10 -6 6.014091814605784 0 0 0
3 1 1 0 -10 -4 4.014091814605784 0 0 0
4 1 1 0 -10 -4 6.014091814605784 0 0 0
5 1 1 0 -10 -2 4.014091814605784 0 0 0
6 1 1 0 -10 -2 6.014091814605784 0 0 0
7 1 1 0 -10 0 4.014091814605784 0 0 0
8 1 1 0 -10 0 6.014091814605784 0 0 0
9 1 1 0 -10 2 4.014091814605784 0 0 0
10 1 1 0 -10 2 6.014091814605784 0 0 0
11 1 1 0 -10 4 4.014091814605784 0 0 0
12 1 1 0 -10 4 6.014091814605784 0 0 0
13 1 1 0 -10 6 4.014091814605784 0 0 0
14 1 1 0 -10 6 6.014091814605784 0 0 0
15 1 1 0 -8 -8 4.014091814605784 0 0 0
16 1 1 0 -8 -8 6.014091814605784 0 0 0
17 1 1 0 -8 -6 4.014091814605784 0 0 0
18 1 1 0 -8 -6 6.014091814605784 0 0 0
19 1 1 0 -8 -4 4.014091814605784 0 0 0
20 1 1 0 -8 -4 6.014091814605784 0 0 0
21 1 1 0 -8 -2 4.014091814605784 0 0 0
22 1 1 0 -8 -2 6.014091814605784 0 0 0
23 1 1 0 -8 0 4.014091814605784 0 0 0
24 1 1 0 -8 0 6.014091814605784 0 0 0
25 1 1 0 -8 2 4.014091814605784 0 0 0
26 1 1 0 -8 2 6.014091814605784 0 0 0
27 1 1 0 -8 4 4.014091814605784 0 0 0
28 1 1 0 -8 4 6.014091814605784 0 0 0
29 1 1 0 -8 6 4.014091814605784 0 0 0
30 1 1 0 -8 6 6.014091814605784 0 0 0
31 1 1 0 -8 8 4.014091814605784 0 0 0
32 1 1 0 -8 8 6.014091814605784 0 0 0
33 1 1 0 -6 -10 4.014091814605784 0 0 0
34 1 1 0 -6 -10 6.014091814605784 0 0 0
35 1 1 0 -6 -8 4.014091814605784 0 0 0
36 1 1 0 -6 -8 6.014091814605784 0 0 0
37 1 1 0 -6 -6 4.014091814605784 0 0 0
38 1 1 0 -6 -6 6.014091814605784 0 0 0
39 1 1 0 -6 -4 4.014091814605784 0 0 0
40 1 1 0 -6 -4 6.014091814605784 0 0 0
41 1 1 0 -6 -2 4.014091814605784 0 0 0
42 1 1 0 -6 -2 6.014091814605784 0 0 0
43 1 1 0 -6 0 4.014091814605784 0 0 0
44 1 1 0 -6 0 6.014091814605784 0 0 0
45 1 1 0 -6 2 4.014091814605784 0 0 0
46 1 1 0 -6 2 6.014091814605784 0 0 0
47 1 1 0 -6 4 4.014091814605784 0 0 0
48 1 1 0 -6 4 6.014091814605784 0 0 0
49 1 1 0 -6 6 4.014091814605784 0 0 0
50 1 1 0 -6 6 6.014091814605784 0 0 0
51 1 1 0 -6 8 4.014091814605784 0 0 0
52 1 1 0 -6 8 6.014091814605784 0 0 0
53 1 1 0 -6 10 4.014091814605784 0 0 0
54 1 1 0 -6 10 6.014091814605784 0 0 0
55 1 1 0 -4 -10 4.014091814605784 0 0 0
56 1 1 0 -4 -10 6.014091814605784 0 0 0
57 1 1 0 -4 -8 4.014091814605784 0 0 0
58 1 1 0 -4 -8 6.014091814605784 0 0 0
59 1 1 0 -4 -6 4.014091814605784 0 0 0
60 1 1 0 -4 -6 6.014091814605784 0 0 0
61 1 1 0 -4 -4 4.014091814605784 0 0 0
62 1 1 0 -4 -4 6.014091814605784 0 0 0
63 1 1 0 -4 -2 4.014091814605784 0 0 0
64 1 1 0 -4 -2 6.014091814605784 0 0 0
65 1 1 0 -4 0 4.014091814605784 0 0 0
66 1 1 0 -4 0 6.014091814605784 0 0 0
67 1 1 0 -4 2 4.014091814605784 0 0 0
68 1 1 -1 -4 2 6.014091814605784 0 0 0
69 1 1 0 -4 4 4.014091814605784 0 0 0
70 1 1 0 -4 4 6.014091814605784 0 0 0
71 1 1 0 -4 6 4.014091814605784 0 0 0
72 1 1 0 -4 6 6.014091814605784 0 0 0
73 1 1 0 -4 8 4.014091814605784 0 0 0
74 1 1 0 -4 8 6.014091814605784 0 0 0
75 1 1 0 -4 10 4.014091814605784 0 0 0
76 1 1 0 -4 10 6.014091814605784 0 0 0
77 1 1 0 -2 -10 4.014091814605784 0 0 0
78 1 1 0 -2 -10 6.014091814605784 0 0 0
79 1 1 0 -2 -8 4.014091814605784 0 0 0
80 1 1 0 -2 -8 6.014091814605784 0 0 0
81 1 1 0 -2 -6 4.014091814605784 0 0 0
82 1 1 0 -2 -6 6.014091814605784 0 0 0
83 1 1 0 -2 -4 4.014091814605784 0 0 0
84 1 1 0 -2 -4 6.014091814605784 0 0 0
85 1 1 0 -2 -2 4.014091814605784 0 0 0
86 1 1 0 -2 -2 6.014091814605784 0 0 0
87 1 1 0 -2 0 4.014091814605784 0 0 0
88 1 1 0 -2 0 6.014091814605784 0 0 0
89 1 1 0 -2 2 4.014091814605784 0 0 0
90 1 1 0 -2 2 6.014091814605784 0 0 0
91 1 1 0 -2 4 4.014091814605784 0 0 0
92 1 1 0 -2 4 6.014091814605784 0 0 0
93 1 1 0 -2 6 4.014091814605784 0 0 0
94 1 1 0 -2 6 6.014091814605784 0 0 0
95 1 1 0 -2 8 4.014091814605784 0 0 0
96 1 1 0 -2 8 6.014091814605784 0 0 0
97 1 1 0 -2 10 4.014091814605784 0 0 0
98 1 1 0 -2 10 6.014091814605784 0 0 0
99 1 1 0 0 -10 4.014091814605784 0 0 0
100 1 1 0 0 -10 6.014091814605784 0 0 0
101 1 1 0 0 -8 4.014091814605784 0 0 0
102 1 1 0 0 -8 6.014091814605784 0 0 0
103 1 1 0 0 -6 4.014091814605784 0 0 0
104 1 1 0 0 -6 6.014091814605784 0 0 0
105 1 1 0 0 -4 4.014091814605784 0 0 0
106 1 1 0 0 -4 6.014091814605784 0 0 0
107 1 1 0 0 -2 4.014091814605784 0 0 0
108 1 1 0 0 -2 6.014091814605784 0 0 0
109 1 1 0 0 0 4.014091814605784 0 0 0
110 1 1 0 0 0 6.014091814605784 0 0 0
111 1 1 0 0 2 4.014091814605784 0 0 0
112 1 1 -1 0 2 6.014091814605784 0 0 0
113 1 1 0 0 4 4.014091814605784 0 0 0
114 1 1 0 0 4 6.014091814605784 0 0 0
115 1 1 0 0 6 4.014091814605784 0 0 0
116 1 1 0 0 6 6.014091814605784 0 0 0
117 1 1 0 0 8 4.014091814605784 0 0 0
118 1 1 0 0 8 6.014091814605784 0 0 0
119 1 1 0 0 10 4.014091814605784 0 0 0
120 1 1 0 0 10 6.014091814605784 0 0 0
121 1 1 0 2 -10 4.014091814605784 0 0 0
122 1 1 0 2 -10 6.014091814605784 0 0 0
123 1 1 0 2 -8 4.014091814605784 0 0 0
124 1 1 0 2 -8 6.014091814605784 0 0 0
125 1 1 0 2 -6 4.014091814605784 0 0 0
126 1 1 0 2 -6 6.014091814605784 0 0 0
127 1 1 0 2 -4 4.014091814605784 0 0 0
128 1 1 0 2 -4 6.014091814605784 0 0 0
129 1 1 0 2 -2 4.014091814605784 0 0 0
130 1 1 0 2 -2 6.014091814605784 0 0 0
131 1 1 0 2 0 4.014091814605784 0 0 0
132 1 1 0 2 0 6.014091814605784 0 0 0
133 1 1 -1 2 2 4.014091814605784 0 0 0
134 1 1 0 2 2 6.014091814605784 0 0 0
135 1 1 0 2 4 4.014091814605784 0 0 0
136 1 1 0 2 4 6.014091814605784 0 0 0
137 1 1 0 2 6 4.014091814605784 0 0 0
138 1 1 0 2 6 6.014091814605784 0 0 0
139 1 1 0 2 8 4.014091814605784 0 0 0
140 1 1 0 2 8 6.014091814605784 0 0 0
141 1 1 0 2 10 4.014091814605784 0 0 0
142 1 1 0 2 10 6.014091814605784 0 0 0
143 1 1 0 4 -10 4.014091814605784 0 0 0
144 1 1 0 4 -10 6.014091814605784 0 0 0
145 1 1 0 4 -8 4.014091814605784 0 0 0
146 1 1 0 4 -8 6.014091814605784 0 0 0
147 1 1 0 4 -6 4.014091814605784 0 0 0
148 1 1 0 4 -6 6.014091814605784 0 0 0
149 1 1 0 4 -4 4.014091814605784 0 0 0
150 1 1 0 4 -4 6.014091814605784 0 0 0
151 1 1 -1 4 -2 4.014091814605784 0 0 0
152 1 1 -1 4 -2 6.014091814605784 0 0 0
153 1 1 0 4 0 4.014091814605784 0 0 0
154 1 1 0 4 0 6.014091814605784 0 0 0
155 1 1 0 4 2 4.014091814605784 0 0 0
156 1 1 0 4 2 6.014091814605784 0 0 0
157 1 1 0 4 4 4.014091814605784 0 0 0
158 1 1 0 4 4 6.014091814605784 0 0 0
159 1 1 0 4 6 4.014091814605784 0 0 0
160 1 1 0 4 6 6.014091814605784 0 0 0
161 1 1 0 4 8 4.014091814605784 0 0 0
162 1 1 0 4 8 6.014091814605784 0 0 0
163 1 1 0 4 10 4.014091814605784 0 0 0
164 1 1 0 4 10 6.014091814605784 0 0 0
165 1 1 0 6 -10 4.014091814605784 0 0 0
166 1 1 0 6 -10 6.014091814605784 0 0 0
167 1 1 0 6 -8 4.014091814605784 0 0 0
168 1 1 0 6 -8 6.014091814605784 0 0 0
169 1 1 0 6 -6 4.014091814605784 0 0 0
170 1 1 0 6 -6 6.014091814605784 0 0 0
171 1 1 0 6 -4 4.014091814605784 0 0 0
172 1 1 0 6 -4 6.014091814605784 0 0 0
173 1 1 0 6 -2 4.014091814605784 0 0 0
174 1 1 0 6 -2 6.014091814605784 0 0 0
175 1 1 0 6 0 4.014091814605784 0 0 0
176 1 1 0 6 0 6.014091814605784 0 0 0
177 1 1 0 6 2 4.014091814605784 0 0 0
178 1 1 0 6 2 6.014091814605784 0 0 0
179 1 1 0 6 4 4.014091814605784 0 0 0
180 1 1 0 6 4 6.014091814605784 0 0 0
181 1 1 0 6 6 4.014091814605784 0 0 0
182 1 1 0 6 6 6.014091814605784 0 0 0
183 1 1 -1 6 8 4.014091814605784 0 0 0
184 1 1 0 6 8 6.014091814605784 0 0 0
185 1 1 0 6 10 4.014091814605784 0 0 0
186 1 1 0 6 10 6.014091814605784 0 0 0
187 1 1 0 8 -8 4.014091814605784 0 0 0
188 1 1 0 8 -8 6.014091814605784 0 0 0
189 1 1 0 8 -6 4.014091814605784 0 0 0
190 1 1 0 8 -6 6.014091814605784 0 0 0
191 1 1 0 8 -4 4.014091814605784 0 0 0
192 1 1 0 8 -4 6.014091814605784 0 0 0
193 1 1 0 8 -2 4.014091814605784 0 0 0
194 1 1 0 8 -2 6.014091814605784 0 0 0
195 1 1 0 8 0 4.014091814605784 0 0 0
196 1 1 0 8 0 6.014091814605784 0 0 0
197 1 1 0 8 2 4.014091814605784 0 0 0
198 1 1 0 8 2 6.014091814605784 0 0 0
199 1 1 0 8 4 4.014091814605784 0 0 0
200 1 1 0 8 4 6.014091814605784 0 0 0
201 1 1 0 8 6 4.014091814605784 0 0 0
202 1 1 0 8 6 6.014091814605784 0 0 0
203 1 1 0 8 8 4.014091814605784 0 0 0
204 1 1 0 8 8 6.014091814605784 0 0 0
205 1 1 0 10 -6 4.014091814605784 0 0 0
206 1 1 0 10 -6 6.014091814605784 0 0 0
207 1 1 0 10 -4 4.014091814605784 0 0 0
208 1 1 0 10 -4 6.014091814605784 0 0 0
209 1 1 0 10 -2 4.014091814605784 0 0 0
210 1 1 0 10 -2 6.014091814605784 0 0 0
211 1 1 0 10 0 4.014091814605784 0 0 0
212 1 1 0 10 0 6.014091814605784 0 0 0
213 1 1 0 10 2 4.014091814605784 0 0 0
214 1 1 0 10 2 6.014091814605784 0 0 0
215 1 1 0 10 4 4.014091814605784 0 0 0
216 1 1 0 10 4 6.014091814605784 0 0 0
217 1 1 0 10 6 4.014091814605784 0 0 0
218 1 1 0 10 6 6.014091814605784 0 0 0
219 1 1 0 -10 -6 -6.014091814605784 0 0 0
220 1 1 0 -10 -6 -4.014091814605784 0 0 0
221 1 1 0 -10 -4 -6.014091814605784 0 0 0
222 1 1 0 -10 -4 -4.014091814605784 0 0 0
223 1 1 0 -10 -2 -6.014091814605784 0 0 0
224 1 1 0 -10 -2 -4.014091814605784 0 0 0
225 1 1 0 -10 0 -6.014091814605784 0 0 0
226 1 1 0 -10 0 -4.014091814605784 0 0 0
227 1 1 0 -10 2 -6.014091814605784 0 0 0
228 1 1 0 -10 2 -4.014091814605784 0 0 0
229 1 1 0 -10 4 -6.014091814605784 0 0 0
230 1 1 0 -10 4 -4.014091814605784 0 0 0
231 1 1 0 -10 6 -6.014091814605784 0 0 0
232 1 1 0 -10 6 -4.014091814605784 0 0 0
233 1 1 0 -8 -8 -6.014091814605784 0 0 0
234 1 1 0 -8 -8 -4.014091814605784 0 0 0
235 1 1 0 -8 -6 -6.014091814605784 0 0 0
236 1 1 0 -8 -6 -4.014091814605784 0 0 0
237 1 1 0 -8 -4 -6.014091814605784 0 0 0
238 1 1 0 -8 -4 -4.014091814605784 0 0 0
239 1 1 0 -8 -2 -6.014091814605784 0 0 0
240 1 1 0 -8 -2 -4.014091814605784 0 0 0
241 1 1 0 -8 0 -6.014091814605784 0 0 0
242 1 1 0 -8 0 -4.014091814605784 0 0 0
243 1 1 0 -8 2 -6.014091814605784 0 0 0
244 1 1 0 -8 2 -4.014091814605784 0 0 0
245 1 1 0 -8 4 -6.014091814605784 0 0 0
246 1 1 0 -8 4 -4.014091814605784 0 0 0
247 1 1 0 -8 6 -6.014091814605784 0 0 0
248 1 1 0 -8 6 -4.014091814605784 0 0 0
249 1 1 0 -8 8 -6.014091814605784 0 0 0
250 1 1 0 -8 8 -4.014091814605784 0 0 0
251 1 1 0 -6 -10 -6.014091814605784 0 0 0
252 1 1 0 -6 -10 -4.014091814605784 0 0 0
253 1 1 0 -6 -8 -6.014091814605784 0 0 0
254 1 1 0 -6 -8 -4.014091814605784 0 0 0
255 1 1 0 -6 -6 -6.014091814605784 0 0 0
256 1 1 0 -6 -6 -4.014091814605784 0 0 0
257 1 1 0 -6 -4 -6.014091814605784 0 0 0
258 1 1 0 -6 -4 -4.014091814605784 0 0 0
259 1 1 0 -6 -2 -6.014091814605784 0 0 0
260 1 1 0 -6 -2 -4.014091814605784 0 0 0
261 1 1 0 -6 0 -6.014091814605784 0 0 0
262 1 1 0 -6 0 -4.014091814605784 0 0 0
263 1 1 0 -6 2 -6.014091814605784 0 0 0
264 1 1 0 -6 2 -4.014091814605784 0 0 0
265 1 1 0 -6 4 -6.014091814605784 0 0 0
266 1 1 0 -6 4 -4.014091814605784 0 0 0
267 1 1 0 -6 6 -6.014091814605784 0 0 0
268 1 1 0 -6 6 -4.014091814605784 0 0 0
269 1 1 0 -6 8 -6.014091814605784 0 0 0
270 1 1 0 -6 8 -4.014091814605784 0 0 0
271 1 1 0 -6 10 -6.014091814605784 0 0 0
272 1 1 0 -6 10 -4.014091814605784 0 0 0
273 1 1 0 -4 -10 -6.014091814605784 0 0 0
274 1 1 0 -4 -10 -4.014091814605784 0 0 0
275 1 1 0 -4 -8 -6.014091814605784 0 0 0
276 1 1 0 -4 -8 -4.014091814605784 0 0 0
277 1 1 0 -4 -6 -6.014091814605784 0 0 0
278 1 1 0 -4 -6 -4.014091814605784 0 0 0
279 1 1 0 -4 -4 -6.014091814605784 0 0 0
280 1 1 0 -4 -4 -4.014091814605784 0 0 0
281 1 1 -1 -4 -2 -6.014091814605784 0 0 0
282 1 1 0 -4 -2 -4.014091814605784 0 0 0
283 1 1 0 -4 0 -6.014091814605784 0 0 0
284 1 1 0 -4 0 -4.014091814605784 0 0 0
285 1 1 0 -4 2 -6.014091814605784 0 0 0
286 1 1 0 -4 2 -4.014091814605784 0 0 0
287 1 1 0 -4 4 -6.014091814605784 0 0 0
288 1 1 -1 -4 4 -4.014091814605784 0 0 0
289 1 1 0 -4 6 -6.014091814605784 0 0 0
290 1 1 0 -4 6 -4.014091814605784 0 0 0
291 1 1 0 -4 8 -6.014091814605784 0 0 0
292 1 1 0 -4 8 -4.014091814605784 0 0 0
293 1 1 0 -4 10 -6.014091814605784 0 0 0
294 1 1 0 -4 10 -4.014091814605784 0 0 0
295 1 1 0 -2 -10 -6.014091814605784 0 0 0
296 1 1 0 -2 -10 -4.014091814605784 0 0 0
297 1 1 0 -2 -8 -6.014091814605784 0 0 0
298 1 1 0 -2 -8 -4.014091814605784 0 0 0
299 1 1 0 -2 -6 -6.014091814605784 0 0 0
300 1 1 0 -2 -6 -4.014091814605784 0 0 0
301 1 1 0 -2 -4 -6.014091814605784 0 0 0
302 1 1 0 -2 -4 -4.014091814605784 0 0 0
303 1 1 0 -2 -2 -6.014091814605784 0 0 0
304 1 1 0 -2 -2 -4.014091814605784 0 0 0
305 1 1 0 -2 0 -6.014091814605784 0 0 0
306 1 1 0 -2 0 -4.014091814605784 0 0 0
307 1 1 0 -2 2 -6.014091814605784 0 0 0
308 1 1 0 -2 2 -4.014091814605784 0 0 0
309 1 1 0 -2 4 -6.014091814605784 0 0 0
310 1 1 0 -2 4 -4.014091814605784 0 0 0
311 1 1 0 -2 6 -6.014091814605784 0 0 0
312 1 1 0 -2 6 -4.014091814605784 0 0 0
313 1 1 0 -2 8 -6.014091814605784 0 0 0
314 1 1 0 -2 8 -4.014091814605784 0 0 0
315 1 1 0 -2 10 -6.014091814605784 0 0 0
316 1 1 0 -2 10 -4.014091814605784 0 0 0
317 1 1 0 0 -10 -6.014091814605784 0 0 0
318 1 1 0 0 -10 -4.014091814605784 0 0 0
319 1 1 0 0 -8 -6.014091814605784 0 0 0
320 1 1 0 0 -8 -4.014091814605784 0 0 0
321 1 1 0 0 -6 -6.014091814605784 0 0 0
322 1 1 0 0 -6 -4.014091814605784 0 0 0
323 1 1 0 0 -4 -6.014091814605784 0 0 0
324 1 1 0 0 -4 -4.014091814605784 0 0 0
325 1 1 0 0 -2 -6.014091814605784 0 0 0
326 1 1 0 0 -2 -4.014091814605784 0 0 0
327 1 1 0 0 0 -6.014091814605784 0 0 0
328 1 1 0 0 0 -4.014091814605784 0 0 0
329 1 1 -1 0 2 -6.014091814605784 0 0 0
330 1 1 0 0 2 -4.014091814605784 0 0 0
331 1 1 0 0 4 -6.014091814605784 0 0 0
332 1 1 0 0 4 -4.014091814605784 0 0 0
333 1 1 0 0 6 -6.014091814605784 0 0 0
334 1 1 -1 0 6 -4.014091814605784 0 0 0
335 1 1 0 0 8 -6.014091814605784 0 0 0
336 1 1 0 0 8 -4.014091814605784 0 0 0
337 1 1 0 0 10 -6.014091814605784 0 0 0
338 1 1 0 0 10 -4.014091814605784 0 0 0
339 1 1 0 2 -10 -6.014091814605784 0 0 0
340 1 1 0 2 -10 -4.014091814605784 0 0 0
341 1 1 0 2 -8 -6.014091814605784 0 0 0
342 1 1 0 2 -8 -4.014091814605784 0 0 0
343 1 1 0 2 -6 -6.014091814605784 0 0 0
344 1 1 0 2 -6 -4.014091814605784 0 0 0
345 1 1 0 2 -4 -6.014091814605784 0 0 0
346 1 1 0 2 -4 -4.014091814605784 0 0 0
347 1 1 0 2 -2 -6.014091814605784 0 0 0
348 1 1 0 2 -2 -4.014091814605784 0 0 0
349 1 1 0 2 0 -6.014091814605784 0 0 0
350 1 1 0 2 0 -4.014091814605784 0 0 0
351 1 1 0 2 2 -6.014091814605784 0 0 0
352 1 1 0 2 2 -4.014091814605784 0 0 0
353 1 1 0 2 4 -6.014091814605784 0 0 0
354 1 1 0 2 4 -4.014091814605784 0 0 0
355 1 1 0 2 6 -6.014091814605784 0 0 0
356 1 1 -1 2 6 -4.014091814605784 0 0 0
357 1 1 0 2 8 -6.014091814605784 0 0 0
358 1 1 0 2 8 -4.014091814605784 0 0 0
359 1 1 0 2 10 -6.014091814605784 0 0 0
360 1 1 0 2 10 -4.014091814605784 0 0 0
361 1 1 0 4 -10 -6.014091814605784 0 0 0
362 1 1 -1 4 -10 -4.014091814605784 0 0 0
363 1 1 0 4 -8 -6.014091814605784 0 0 0
364 1 1 0 4 -8 -4.014091814605784 0 0 0
365 1 1 0 4 -6 -6.014091814605784 0 0 0
366 1 1 0 4 -6 -4.014091814605784 0 0 0
367 1 1 0 4 -4 -6.014091814605784 0 0 0
368 1 1 0 4 -4 -4.014091814605784 0 0 0
369 1 1 0 4 -2 -6.014091814605784 0 0 0
370 1 1 0 4 -2 -4.014091814605784 0 0 0
371 1 1 0 4 0 -6.014091814605784 0 0 0
372 1 1 0 4 0 -4.014091814605784 0 0 0
373 1 1 0 4 2 -6.014091814605784 0 0 0
374 1 1 0 4 2 -4.014091814605784 0 0 0
375 1 1 0 4 4 -6.014091814605784 0 0 0
376 1 1 0 4 4 -4.014091814605784 0 0 0
377 1 1 0 4 6 -6.014091814605784 0 0 0
378 1 1 0 4 6 -4.014091814605784 0 0 0
379 1 1 0 4 8 -6.014091814605784 0 0 0
380 1 1 0 4 8 -4.014091814605784 0 0 0
381 1 1 0 4 10 -6.014091814605784 0 0 0
382 1 1 0 4 10 -4.014091814605784 0 0 0
383 1 1 0 6 -10 -6.014091814605784 0 0 0
384 1 1 0 6 -10 -4.014091814605784 0 0 0
385 1 1 0 6 -8 -6.014091814605784 0 0 0
386 1 1 0 6 -8 -4.014091814605784 0 0 0
387 1 1 0 6 -6 -6.014091814605784 0 0 0
388 1 1 0 6 -6 -4.014091814605784 0 0 0
389 1 1 0 6 -4 -6.014091814605784 0 0 0
390 1 1 0 6 -4 -4.014091814605784 0 0 0
391 1 1 0 6 -2 -6.014091814605784 0 0 0
392 1 1 0 6 -2 -4.014091814605784 0 0 0
393 1 1 0 6 0 -6.014091814605784 0 0 0
394 1 1 0 6 0 -4.014091814605784 0 0 0
395 1 1 0 6 2 -6.014091814605784 0 0 0
396 1 1 0 6 2 -4.014091814605784 0 0 0
397 1 1 0 6 4 -6.014091814605784 0 0 0
398 1 1 0 6 4 -4.014091814605784 0 0 0
399 1 1 0 6 6 -6.014091814605784 0 0 0
400 1 1 0 6 6 -4.014091814605784 0 0 0
401 1 1 0 6 8 -6.014091814605784 0 0 0
402 1 1 0 6 8 -4.014091814605784 0 0 0
403 1 1 0 6 10 -6.014091814605784 0 0 0
404 1 1 0 6 10 -4.014091814605784 0 0 0
405 1 1 0 8 -8 -6.014091814605784 0 0 0
406 1 1 0 8 -8 -4.014091814605784 0 0 0
407 1 1 0 8 -6 -6.014091814605784 0 0 0
408 1 1 0 8 -6 -4.014091814605784 0 0 0
409 1 1 0 8 -4 -6.014091814605784 0 0 0
410 1 1 0 8 -4 -4.014091814605784 0 0 0
411 1 1 0 8 -2 -6.014091814605784 0 0 0
412 1 1 0 8 -2 -4.014091814605784 0 0 0
413 1 1 0 8 0 -6.014091814605784 0 0 0
414 1 1 0 8 0 -4.014091814605784 0 0 0
415 1 1 0 8 2 -6.014091814605784 0 0 0
416 1 1 0 8 2 -4.014091814605784 0 0 0
417 1 1 0 8 4 -6.014091814605784 0 0 0
418 1 1 0 8 4 -4.014091814605784 0 0 0
419 1 1 0 8 6 -6.014091814605784 0 0 0
420 1 1 0 8 6 -4.014091814605784 0 0 0
421 1 1 0 8 8 -6.014091814605784 0 0 0
422 1 1 0 8 8 -4.014091814605784 0 0 0
423 1 1 0 10 -6 -6.014091814605784 0 0 0
424 1 1 0 10 -6 -4.014091814605784 0 0 0
425 1 1 0 10 -4 -6.014091814605784 0 0 0
426 1 1 0 10 -4 -4.014091814605784 0 0 0
427 1 1 0 10 -2 -6.014091814605784 0 0 0
428 1 1 0 10 -2 -4.014091814605784 0 0 0
429 1 1 0 10 0 -6.014091814605784 0 0 0
430 1 1 0 10 0 -4.014091814605784 0 0 0
431 1 1 0 10 2 -6.014091814605784 0 0 0
432 1 1 0 10 2 -4.014091814605784 0 0 0
433 1 1 0 10 4 -6.014091814605784 0 0 0
434 1 1 0 10 4 -4.014091814605784 0 0 0
435 1 1 0 10 6 -6.014091814605784 0 0 0
436 1 1 0 10 6 -4.014091814605784 0 0 0
437 1 2 1 -8.053248082865888 -0.4352043159356791 0.21663947438146602 0 0 0
438 1 3 0 -6.51388868789353 -0.3963602236298186 1.8571771269829749 0 0 0
439 1 3 0 -6.358757157829012 -1.518017133327663 -0.08712737213924915 0 0 0
440 1 2 1 -1.8237529771479273 -4.060915171428516 0.8335991328793839 0 0 0
441 1 3 0 -2.306007754543937 -4.5975322735867765 -1.297591242321761 0 0 0
442 1 3 0 -2.6374961382167044 -6.105472926651403 0.3390915120094027 0 0 0
443 1 2 1 -9.434583477263645 -9.663214779930264 -3.131028091082282 0 0 0
444 1 3 0 -10.820026906529815 -8.395543042152559 -1.8916512841575883 0 0 0
445 1 3 0 -11.640756423577272 -7.656109424257957 -3.8517892855682914 0 0 0
446 1 2 1 5.358146065958666 -1.079157039183035 1.2426737316027254 0 0 0
447 1 3 0 5.482123317236924 0.27594838916499986 -0.5492020786104648 0 0 0
448 1 3 0 7.256659808784877 0.7818672243601467 0.7382630169783313 0 0 0
449 1 2 1 7.582099350816274 -8.302175433286692 0.3764893277749086 0 0 0
450 1 3 0 8.3321969780754 -9.63281772919702 -1.2755532352102945 0 0 0
451 1 3 0 7.109168445422931 -11.505910137189845 -1.0342525111384737 0 0 0
452 1 2 1 1.2296941955487153 9.877660334617268 -1.3228034015504246 0 0 0
453 1 3 0 3.018919422496394 11.19124062299577 -1.691150945640895 0 0 0
454 1 3 0 2.639992101761056 10.592221960427537 0.4442859481809063 0 0 0
455 1 4 0 -16.832276252507597 18.84620967037978 -10.813736427621224 0 0 0
456 1 4 0 -14.852143240140888 19.090483497789062 -10.953033055643452 0 0 0
457 1 4 0 -14.536817100039235 -19.566360793430448 -9.618509516588016 0 0 0
458 1 4 0 -14.78136821391977 -19.59191701121114 -11.60333737623543 0 0 0
459 1 4 0 -13.556899988350285 19.955908803345068 -13.08034642246625 0 0 0
460 1 4 0 -12.22193896054725 19.93770395346756 -11.591203166198403 0 0 0
461 1 4 0 -13.098832557396083 -19.504421492292238 -9.92346784739567 0 0 0
462 1 4 0 -12.430014525659647 19.753393570518956 -11.603287828089007 0 0 0
463 1 4 0 -12.481235300532774 17.796027917223398 -11.195738896646102 0 0 0
464 1 4 0 -13.148455178251643 16.37908034006604 -9.951923316117899 0 0 0
465 1 4 0 -11.768943532616632 15.178608158680161 -10.761746853239421 0 0 0
466 1 4 0 -11.53248470849258 15.15938538455282 -12.747626434042024 0 0 0
467 1 4 0 -10.700399975934426 14.344352390624167 -11.121786276876714 0 0 0
468 1 4 0 -10.691064090397115 14.661962666022362 -9.147188456002114 0 0 0
469 1 4 0 -11.574623641421752 16.379087428095026 -9.667577801848116 0 0 0
470 1 4 0 -10.838946277301488 18.175832662238495 -10.147666730593404 0 0 0
471 1 4 0 -11.818445368809128 16.869242976443893 -8.992935193520449 0 0 0
472 1 4 0 -11.80908839441938 15.095308714635845 -9.916552907628295 0 0 0
473 1 4 0 -10.819386838459565 14.694717539586254 -8.225394269119445 0 0 0
474 1 4 0 -10.916764202864499 15.612374041083623 -6.451014322726576 0 0 0
475 1 4 0 -11.38175214382076 16.910645264695987 -7.899557744480067 0 0 0
476 1 4 0 -12.395024633840654 16.944376485994326 -6.1755678762735835 0 0 0
477 1 4 0 -10.732201088691578 18.029587402614794 -5.936120336829913 0 0 0
478 1 4 0 -8.943845125545085 18.26129241085816 -5.071195057841423 0 0 0
479 1 4 0 -6.949381188783642 18.39729755542889 -5.011060162744306 0 0 0
480 1 4 0 -8.56780903609802 18.83107362339639 -6.103090210818078 0 0 0
481 1 4 0 -7.046554468155827 17.625160829171286 -5.621884566379837 0 0 0
482 1 4 0 -5.603114962316063 18.16048134137579 -4.34520357952597 0 0 0
483 1 4 0 -5.520888164856759 18.13452128606935 -2.3470632367802278 0 0 0
484 1 4 0 -5.580210509540202 18.205705919231054 -4.3449154854269825 0 0 0
485 1 4 0 -6.080897231187311 16.945488400524063 -2.874825483995007 0 0 0
486 1 4 0 -5.594956918978041 18.842470617511086 -2.4682292697910997 0 0 0
487 1 4 0 -5.449026483094174 18.759645843608876 -4.461177930622781 0 0 0
488 1 4 0 -5.429396680878789 18.948264190952596 -2.4701887820058657 0 0 0
489 1 4 0 -4.053880120602599 18.51988081569214 -3.8574313261222217 0 0 0
490 1 4 0 -4.731374734284656 18.4836549590123 -5.738837378982585 0 0 0
491 1 4 0 -3.72800070591056 18.039075561198203 -4.066835668988365 0 0 0
492 1 4 0 -2.1836832409912965 19.185567834974957 -4.615141271472555 0 0 0
493 1 4 0 -2.4660513113645006 18.596523807142425 -2.7248250529237796 0 0 0
494 1 4 0 -3.0413624538313564 18.710285676520705 -0.8127384109462148 0 0 0
495 1 4 0 -2.6022631972462484 18.085144336239267 1.0356095399379077 0 0 0
496 1 4 0 -2.4305802312221436 18.017415272004985 -0.955856687000203 0 0 0
497 1 4 0 -2.836690542129981 17.341053199110835 -2.793683871945694 0 0 0
498 1 4 0 -1.1681324528407537 16.9327177270278 -1.7693909231726348 0 0 0
499 1 4 0 -2.53849550973972 15.639162033626723 -2.439330293829547 0 0 0
500 1 4 0 -2.7198387018869266 15.299667193118127 -4.401945360502047 0 0 0
501 1 4 0 -4.352934562523725 14.210227940509142 -4.019688869588249 0 0 0
502 1 4 0 -3.9025953854821958 12.95679245195782 -2.5276787819341244 0 0 0
503 1 4 0 -4.073091325839628 12.781898984358508 -0.5426489561348435 0 0 0
504 1 4 0 -2.2539793440752303 12.756923453039311 0.288138514062276 0 0 0
505 1 4 0 -2.3447216270663738 12.527240516350856 2.2728328448527186 0 0 0
506 1 4 0 -3.2008482690701454 14.278510050607887 2.720160679035333 0 0 0
507 1 4 0 -3.509446937993905 12.452110510702498 1.9658188585243213 0 0 0
508 1 4 0 -3.3714803571007135 13.586687649087446 3.607068364117808 0 0 0
509 1 4 0 -3.8927572418885736 13.21363923987937 1.7125749506235335 0 0 0
510 1 4 0 -4.635918859820385 12.781979821503983 -0.09335443785232678 0 0 0
511 1 4 0 -6.414533232941404 12.702446801878613 -1.0045105224594555 0 0 0
512 1 4 0 -4.6395652493909045 13.486655765662633 -0.5202534022315055 0 0 0
513 1 4 0 -5.794648037049435 15.103455592260254 -0.29278455959828 0 0 0
514 1 4 0 -6.1939853855020095 14.120183556072801 -1.9879853692319491 0 0 0
515 1 4 0 -5.042047038295992 12.57660851629959 -1.449084505598015 0 0 0
516 1 4 0 -4.802489609578131 14.552894169315849 -1.2569718927164388 0 0 0
517 1 4 0 -3.597990731583277 13.550754769777416 -2.4999115842549653 0 0 0
518 1 4 0 -2.902259401805958 12.062020905358319 -1.3598986906006605 0 0 0
519 1 4 0 -2.9310420822057166 13.702666567779897 -0.21645941906663202 0 0 0
520 1 4 0 -3.550106521213775 11.816791904123894 0.028970761098718073 0 0 0
521 1 4 0 -2.7252704104548875 11.9904006254308 -1.78472860822199 0 0 0
522 1 4 0 -2.7349607734226153 13.546991091187921 -3.040488226452956 0 0 0
523 1 4 0 -3.8941671560935203 12.556571423148245 -1.7461507729520485 0 0 0
524 1 4 0 -4.917848148647257 13.463289340416404 -3.205582115629424 0 0 0
525 1 4 0 -3.1867354289953758 12.586693327583617 -2.720991378878166 0 0 0
526 1 4 0 -2.1037720829704876 12.59463580625144 -1.0395850305497227 0 0 0
527 1 4 0 -2.0147678974807226 12.915002743691781 -3.011752183800278 0 0 0
528 1 4 0 -3.388292879742715 12.385450795189774 -1.6578674557159703 0 0 0
529 1 4 0 -3.922470583015756 13.074290705420776 -3.4579101661533875 0 0 0
530 1 4 0 -4.021164540657677 13.235238181597504 -5.448979078229842 0 0 0
531 1 4 0 -4.557015706093967 15.114898258517567 -5.872938420305744 0 0 0
532 1 4 0 -5.18440676043087 13.229831284195122 -6.102944870773658 0 0 0
533 1 4 0 -5.502597358807631 13.89619574710163 -7.96163073602361 0 0 0
534 1 4 0 -5.447158608317389 15.21347954400544 -6.457739136419846 0 0 0
535 1 4 0 -3.510201041184188 15.711446977037852 -6.472699710089932 0 0 0
536 1 4 0 -2.944566979121657 16.895472276759158 -7.982051291880772 0 0 0
537 1 4 0 -3.109748377967728 18.683270778622994 -8.863238912202734 0 0 0
538 1 4 0 -1.845921725533717 17.133316870913045 -8.843615544191598 0 0 0
539 1 4 0 -1.3381659007372684 17.108898144505268 -10.777933963735263 0 0 0
540 1 4 0 0.08915471182737744 15.880217744077466 -10.104806678184705 0 0 0
541 1 4 0 1.440791674483619 15.91810643872313 -11.578455879317545 0 0 0
542 1 4 0 1.8295295866498678 16.412540220400235 -13.476986382412269 0 0 0
543 1 4 0 3.5829980596347024 16.603470343777325 -14.41979813575195 0 0 0
544 1 4 0 3.7810708078097695 16.753727453413667 -12.435310799578168 0 0 0
545 1 4 0 3.5090229215637803 16.752926338741382 -14.416721737724108 0 0 0
546 1 4 0 2.6167577312447152 15.899184233940428 -15.98993095732426 0 0 0
547 1 4 0 2.796660631320479 16.558117004232198 -17.86967629932672 0 0 0
548 1 4 0 0.9936508173211611 16.188558551479574 -18.652352580186967 0 0 0
549 1 4 0 2.640845176578793 15.057828447262482 -18.561797766692347 0 0 0
550 1 4 0 3.7546295444785 13.412169281218915 -18.335324167703323 0 0 0
551 1 4 0 2.562457813337054 14.853125579072003 -17.626542458610366 0 0 0
552 1 4 0 1.6234207601756503 15.011019119785061 -15.8677704317146 0 0 0
553 1 4 0 2.2898226090177527 13.898853242611263 -17.39059531905722 0 0 0
554 1 4 0 3.0461110711158828 15.654322380167294 -16.802075252121913 0 0 0
555 1 4 0 0.19890005860979088 -12.40232837297289 -10.509790984692481 0 0 0
556 1 4 0 0.37597449926977417 -12.141725698467585 -12.484817791727169 0 0 0
557 1 4 0 1.0462144086531768 -12.041385564724328 -10.603140263182462 0 0 0
558 1 4 0 0.8854349756879207 -12.111248487003364 -12.595442736710517 0 0 0
559 1 4 0 1.417053754592156 -11.44843582071912 -14.405984325111497 0 0 0
560 1 4 0 0.8345089238237193 -12.64168672817619 -12.91039287287668 0 0 0
561 1 4 0 1.5238245907709538 -12.466613351086004 -11.04111674989877 0 0 0
562 1 4 0 2.5877552004065505 -12.598719007191017 -12.729488673825927 0 0 0
563 1 4 0 0.7029504731252458 -12.359447253005115 -13.354196739779015 0 0 0
564 1 4 0 1.4978990774390297 -14.14836472987893 -12.944524947443988 0 0 0
565 1 4 0 2.9846345764635593 -12.815783920229315 -12.826856167838443 0 0 0
566 1 4 0 2.6222695456870713 -14.263902974550932 -11.495825443557063 0 0 0
567 1 4 0 2.1511006646301363 -13.928380347679091 -13.410355268966052 0 0 0
568 1 4 0 1.374103470823453 -12.088458043772341 -13.305659154410552 0 0 0
569 1 4 0 2.181150634984891 -13.623639470817976 -12.309720973159772 0 0 0
570 1 4 0 2.7573375808763654 -13.011460297145089 -14.124451053007856 0 0 0
571 1 4 0 1.3922090492929575 -11.958305551976729 -15.138003801998403 0 0 0
572 1 4 0 2.404122856288546 -11.258684636116328 -13.561120476795695 0 0 0
573 1 4 0 2.647788002317236 -12.869717210046584 -12.401292324720366 0 0 0
574 1 4 0 2.8206673880943156 -12.035627087707779 -10.591760234430122 0 0 0
575 1 4 0 1.189431190119722 -12.702804910964959 -11.537245410713286 0 0 0
576 1 4 0 2.3737607621997645 -14.132219881470903 -10.792842088051305 0 0 0
577 1 4 0 4.254776486891268 -14.428769128863548 -11.404265335347441 0 0 0
578 1 4 0 3.009418030581818 -14.989670692910744 -12.865248480612284 0 0 0
579 1 4 0 3.660159618917802 -14.743068525339975 -14.740274548740233 0 0 0
580 1 4 0 3.812109813733109 -16.00504049756544 -16.284404685617616 0 0 0
581 1 4 0 5.287058893191069 -15.582046413981375 -17.567214577323707 0 0 0
582 1 4 0 5.145696328247251 -15.529681161766163 -15.57290404343162 0 0 0
583 1 4 0 5.005420722612864 -15.785251889907613 -17.551541543677978 0 0 0
584 1 4 0 6.937526297612558 -15.933472547155873 -18.046514960964195 0 0 0
585 1 4 0 8.46480106775238 -17.21600434275785 -17.89636846661842 0 0 0
586 1 4 0 10.062523351670638 -16.123646266988988 -17.392347298636782 0 0 0
587 1 4 0 11.346976912644468 -14.60497024221319 -17.601637005676633 0 0 0
588 1 4 0 12.262222742081633 -15.50704131699606 -19.134148946164522 0 0 0
589 1 4 0 13.123576988248608 -14.804933251405544 19.315722639817377 0 0 0
590 1 4 0 14.114024590519685 -16.4392600057439 19.905629079186642 0 0 0
591 1 4 0 14.29836223642024 -16.68720840866945 -18.23111423783345 0 0 0
592 1 4 0 12.331176732946139 -17.034668461760514 -18.32833926767297 0 0 0
593 1 4 0 12.329702371860735 -17.087832813324965 -16.32904654823889 0 0 0
594 1 4 0 11.094062199843943 -16.396811126754066 -17.74173278162089 0 0 0
595 1 4 0 10.87209530882679 -16.033867326963488 -19.695959610186538 0 0 0
596 1 4 0 8.99040271003911 -15.67569347049368 19.841497189196936 0 0 0
597 1 4 0 8.205764677291862 -17.07631023701541 -19.078502725608825 0 0 0
598 1 4 0 8.226036872060778 -16.81854082878894 -17.095287162362652 0 0 0
599 1 4 0 10.198673928634951 -16.68509184710183 -17.396774164266642 0 0 0
600 1 4 0 9.684185114236495 -15.818262164107272 -15.669375090358582 0 0 0
601 1 4 0 10.835741098427855 -15.6481006597597 -17.29570958169523 0 0 0
602 1 4 0 11.075381452071642 -15.73766946485705 -19.279279577954227 0 0 0
603 1 4 0 11.354317594176337 -15.65170647059395 -17.300692963159445 0 0 0
604 1 4 0 10.66338215092518 -14.090197522855217 -16.259396646354663 0 0 0
605 1 4 0 11.976341249385605 -15.209048036237665 -17.271479614531593 0 0 0
606 1 4 0 10.49059812661916 -14.132184493098716 -16.475909201173707 0 0 0